<?xml version="1.0" ?>
<VTKFile byte_order="LittleEndian" type="UnstructuredGrid" version="0.1">
<UnstructuredGrid>
<Piece NumberOfCells="624" NumberOfPoints="322">
<Points>
<DataArray Name="vertices" NumberOfComponents="3" format="ascii" type="Float32">0.526638 0.0859709 0 0.585441 0.098982 0 0.53087 0.128071 0 0.48337 0.101243 0 0.563977 0.196026 0 0.640661 0.137966 0 0.651966 0.0820462 0 0.466431 0.161095 0 0.436248 0.0967499 0 0.652892 0.232992 0 0.557286 0.351752 0 0.454389 0.277478 0 0.720423 0.163525 0 0.706979 0.0991428 0 0.702969 0.0600375 0 0.40537 0.128482 0 0.366018 0.188753 0 0.395235 0.0904615 0 0.765571 0.243979 0 0.682402 0.338901 0 0.442057 0.446473 0 0.599417 0.562359 0 0.334091 0.317884 0 0.771039 0.0977656 0 0.825309 0.131763 0 0.759975 0.0587267 0 0.355311 0.107969 0 0.299476 0.137298 0 0.250751 0.231194 0 0.810082 0.332206 0 0.870283 0.221191 0 0.819038 0.472019 0 0.277553 0.437062 0 0.326685 0.625707 0 0.453955 0.856265 0 0.873462 0.762144 0 0.188978 0.34141 0 0.819015 0.0683018 0 0.869973 0.0606215 0 0.902156 0.102337 0 0.299827 0.089676 0 0.236377 0.0969599 0 0.231573 0.150626 0 0.160677 0.249523 0 0.183763 0.187843 0 0.973249 0.312695 0 0.974695 0.146402 0 1.03979 0.4727 0 0.0629403 0.504799 0 0.100547 0.783421 0 0.247805 1.24232 0 0.710919 1.09028 0 1.18627 1.062 0 1.1492 0.682983 0 0.079543 0.296512 0 0.912379 0.0496089 0 0.954867 0.0626264 0 0.173524 0.127342 0 0.180135 0.0856662 0 0.236829 0.0688748 0 0.113072 0.173886 0 1.08062 0.210991 0 1.172 0.314467 0 1.01255 0.0757491 0 1.08731 0.0999841 0 1.28385 0.458982 0 -0.162476 0.414557 0 -0.0363004 0.322279 0 -0.221697 0.676334 0 -0.251517 1.02401 0 -0.266608 1.5854 0 0.841797 1.53742 0 0.401521 1.84135 0 1.37425 1.52121 0 1.77081 1.08781 0 1.4356 0.697596 0 0.0277177 0.219162 0 0.99502 0.0368864 0 0.135912 0.0963155 0 0.0922807 0.108335 0 0.0326569 0.130173 0 1.18292 0.169153 0 1.31107 0.216303 0 1.06634 0.0233003 0 1.20572 0.0339756 0 1.5403 0.352638 0 -0.30985 0.26391 0 -0.150924 0.261162 0 -0.412949 0.440758 0 -0.0489819 0.185349 0 -0.56375 0.705022 0 -0.702145 1.13931 0 -0.872597 1.66651 0 0.0131336 2.53293 0 -0.85249 2.32267 0 0.942107 2.39182 0 2.05354 1.79745 0 2.2613 0.804715 0 1.86899 0.479572 0 0.0593893 0.0776611 0 -0.0395274 0.0874573 0 0.0163149 0.0767208 0 1.44833 0.0181599 0 1.04707 -0.0514599 0 1.11917 -0.0385741 0 1.19815 -0.0743307 0 1.28938 -0.133009 0 1.68058 0.0977626 0 -0.48367 0.16466 0 -0.207716 0.156954 0 -0.276485 0.072442 0 -0.12244 0.148423 0 -0.689971 0.384599 0 -0.989332 0.727765 0 -1.22766 1.20827 0 -1.65729 1.91827 0 0.585749 3.67139 0 -0.655299 3.277 0 -1.94751 3.14026 0 2.06015 3.05596 0 3.13801 2.22018 0 3.07108 1.08229 0 2.48166 0.0439709 0 1.97692 -0.0726811 0 0.97375 -0.0557632 0 -0.127277 0.0594066 0 -0.0485445 0.0259676 0 -0.00818778 0.0440651 0 1.66523 -0.268019 0 1.42288 -0.311115 0 1.01277 -0.115899 0 1.12451 -0.141626 0 1.19948 -0.306025 0 -0.729145 0.094214 0 -0.377355 -0.0113401 0 -0.562275 -0.130145 0 -0.201677 -0.0461774 0 -0.980303 0.260773 0 -1.40398 0.500584 0 -2.06083 1.06967 0 -2.93116 2.10185 0 3.7773 -0.0493296 0 1.96302 -0.549915 0 2.77758 -0.798008 0 0.921949 -0.0999181 0 0.917061 -0.050168 0 -0.0850598 -0.0197715 0 -0.0391411 -0.0157174 0 1.56577 -0.692974 0 1.288 -0.511641 0 1.04727 -0.214262 0 0.933337 -0.193974 0 1.09823 -0.45191 0 1.02997 -0.314942 0 -0.854138 -0.194135 0 -0.335192 -0.175303 0 -0.578953 -0.384479 0 -0.377895 -0.349817 0 -0.205744 -0.169728 0 -0.0847593 -0.111035 0 -1.31599 -0.0542718 0 -1.87918 0.109973 0 -2.50241 0.306335 0 -3.14844 0.97797 0 3.50255 -1.66223 0 2.01246 -1.11962 0 2.46635 -1.56725 0 0.864425 -0.0738044 0 0.827806 -0.135411 0 -0.0227687 -0.0576273 0 1.47668 -1.29627 0 1.26092 -0.899897 0 0.98477 -0.624236 0 0.797008 -0.238581 0 0.887009 -0.377631 0 -0.724058 -0.659269 0 -1.19107 -0.531622 0 -0.249019 -0.283633 0 -0.346838 -0.552453 0 -0.169711 -0.404392 0 -0.114222 -0.23568 0 -0.0193698 -0.206732 0 0.0198244 -0.131324 0 -1.6527 -0.423863 0 -2.40041 -0.609329 0 -3.69013 -0.211235 0 2.54497 -2.45409 0 1.80462 -1.89889 0 0.811458 -0.0691753 0 0.766791 -0.097734 0 0.708247 -0.158502 0 0.0269791 -0.073824 0 1.02181 -1.27251 0 0.891262 -1.75432 0 0.832492 -0.929977 0 0.619497 -0.713512 0 0.729366 -0.479282 0 0.703688 -0.306163 0 -0.476984 -1.11349 0 -1.01455 -1.07662 0 -0.282558 -0.824367 0 -1.60701 -0.996917 0 -0.0833238 -0.575503 0 0.0227442 -0.418819 0 -0.0139471 -0.303928 0 0.0759261 -0.220698 0 0.108007 -0.139128 0 0.0705108 -0.0929895 0 -3.26772 -1.57395 0 -2.06792 -1.45848 0 1.45212 -2.65706 0 0.764513 -0.0583471 0 0.71244 -0.085108 0 0.654074 -0.0903193 0 0.597707 -0.226592 0 0.615993 -0.138536 0 0.521346 -1.30334 0 0.157502 -2.31922 0 0.0386852 -1.59993 0 0.375892 -0.951559 0 0.335843 -0.642252 0 0.514119 -0.524974 0 0.597306 -0.375509 0 0.0105269 -1.10519 0 -0.566342 -1.6938 0 -1.36284 -1.91923 0 0.0319835 -0.76757 0 0.176452 -0.488295 0 0.112128 -0.331701 0 0.150299 -0.257193 0 0.190548 -0.186529 0 0.167199 -0.119901 0 0.128439 -0.0908389 0 -2.38115 -2.31517 0 0.815326 -3.41079 0 0.695898 -0.0565689 0 0.585784 -0.0897824 0 0.50818 -0.272624 0 0.545991 -0.131307 0 0.489388 -0.179377 0 -0.730989 -2.48976 0 -0.314532 -3.56828 0 0.333728 -0.399241 0 0.463791 -0.361004 0 -1.62829 -3.32277 0 0.223932 -0.30394 0 0.22927 -0.122416 0 0.290865 -0.249013 0 0.290996 -0.16376 0 0.183036 -0.0843312 0 0.527925 -0.0859769 0 0.383926 -0.226765 0 0.480794 -0.109505 0 0.41649 -0.141487 0 0.235785 -0.083834 0 0.294074 -0.0985622 0 0.349967 -0.128662 0 0.432593 -0.0961824 0 0.387304 -0.0961988 0 0.299843 -0.068734 0 0.543903 0.0489937 0 0.5 0.0521929 0 0.587805 0.0457946 0 0.456097 0.054544 0 0.626436 0.042425 0 0.412195 0.056895 0 0.665067 0.0390555 0 0.373564 0.0580372 0 0.733051 0.0323938 0 0.334933 0.0591793 0 0.792872 0.026009 0 0.266949 0.0592694 0 0.84551 0.0199922 0 0.891827 0.0143805 0 0.207128 0.0573528 0 0.932583 0.00918357 0 0.968444 0.00439661 0 0.15449 0.0535536 0 1 7e-06 0 0.108173 0.047873 0 0.968444 -0.00439661 0 0.0674173 0.0400366 0 0.0315555 0.0289122 0 -0.963483 4.90629 0 0.791811 4.93691 0 2.44949 4.3589 0 -3.91599 3.10886 0 -2.6 4.27083 0 3.8052 3.24353 0 4.6918 1.7283 0 0.932583 -0.00918357 0 0 0 0 -4.74921 1.56364 0 5 0 0 4.80085 -1.39708 0 0.891827 -0.0143805 0 0.0315555 -0.0289122 0 -4.99696 -0.174354 0 4.02201 -2.97042 0 0.84551 -0.0199922 0 0.0674173 -0.0400366 0 -4.62868 -1.89085 0 2.74735 -4.17757 0 0.792872 -0.026009 0 0.108173 -0.047873 0 -3.68978 -3.37425 0 1.13398 -4.86971 0 0.733051 -0.0323938 0 0.626436 -0.042425 0 0.665067 -0.0390555 0 0.15449 -0.0535536 0 -2.296 -4.44166 0 -0.619175 -4.96151 0 0.587805 -0.0457946 0 0.543903 -0.0489937 0 0.207128 -0.0573528 0 0.5 -0.0521929 0 0.456097 -0.054544 0 0.266949 -0.0592694 0 0.334933 -0.0591793 0 0.412195 -0.056895 0 0.373564 -0.0580372 0 </DataArray>
</Points>
<Cells>
<DataArray Name="connectivity" format="ascii" type="Int32">0 3 0 2 0 1 1 2 2 3 4 11 4 10 4 9 4 5 5 12 5 9 6 14 6 13 7 16 7 15 7 8 8 17 8 15 9 10 9 19 9 18 9 12 10 19 10 11 12 23 12 18 13 25 13 14 14 25 15 16 15 26 15 17 16 28 16 26 17 26 18 30 18 29 18 19 19 29 20 33 20 32 20 22 21 35 21 31 21 34 22 36 22 32 24 37 24 39 24 38 27 42 27 41 27 40 29 30 31 35 31 47 32 48 32 36 32 33 33 48 34 35 34 51 35 47 35 53 35 52 35 51 36 48 36 43 37 38 38 55 38 39 39 55 40 41 41 42 41 58 41 57 42 44 42 57 44 57 45 62 45 61 45 46 46 64 46 61 47 53 49 69 49 50 49 68 50 70 50 69 51 52 52 53 52 74 54 67 54 76 54 60 56 77 56 63 57 58 57 78 58 78 60 80 60 76 60 79 61 62 61 81 61 64 62 81 63 77 63 83 64 81 65 75 65 85 65 82 66 88 66 87 66 86 67 76 67 89 68 69 68 90 69 90 69 91 69 70 70 91 71 73 71 95 71 72 72 93 72 95 73 95 73 96 75 98 75 85 76 89 76 80 77 83 79 99 79 80 80 89 80 99 80 101 82 102 82 85 84 106 84 105 84 104 85 102 85 107 85 98 86 110 86 109 86 87 86 108 86 88 87 111 87 109 88 108 90 91 92 115 92 94 92 114 93 117 93 116 93 95 94 115 94 118 95 119 95 96 95 116 96 97 96 120 96 119 98 123 98 107 99 101 100 127 100 126 100 125 102 107 103 130 103 124 104 131 104 105 105 106 105 131 106 131 107 123 108 110 109 110 109 111 112 113 112 137 112 133 113 138 113 137 114 139 114 115 115 140 115 118 115 139 116 119 116 117 118 140 119 120 121 141 121 122 122 143 122 141 124 145 124 144 124 130 125 146 125 126 126 147 126 127 126 146 128 142 128 148 128 129 129 149 129 148 130 144 132 150 132 153 132 152 133 137 133 154 134 155 134 135 134 136 135 157 135 155 135 156 136 158 136 155 137 154 137 160 137 138 138 160 139 140 139 163 140 163 141 164 141 143 142 165 142 148 143 166 143 164 144 145 146 169 146 147 147 169 148 171 148 170 148 165 148 149 149 171 150 153 150 151 151 174 151 173 151 153 152 174 152 153 153 174 154 176 154 160 155 158 155 177 155 157 156 178 156 157 157 177 157 179 157 178 158 177 159 182 159 181 159 180 160 176 161 184 161 162 161 183 162 184 162 185 164 166 165 170 167 188 167 168 168 189 168 188 170 192 170 171 171 192 172 196 172 195 172 194 173 174 173 197 174 197 175 200 175 199 175 198 177 179 178 179 180 204 180 181 181 204 181 205 181 182 182 191 182 207 182 205 183 201 183 184 184 209 184 208 184 185 184 201 185 208 186 210 186 187 187 210 187 193 188 211 188 189 189 211 190 215 190 213 190 212 191 207 193 217 193 216 193 210 194 219 194 195 195 221 195 196 195 220 195 219 196 221 198 224 198 218 198 199 198 223 198 200 199 224 200 226 200 202 200 223 201 209 202 226 203 228 203 204 204 228 204 205 205 229 205 228 206 232 206 231 206 230 208 209 210 234 210 217 212 235 212 213 213 235 213 236 213 215 214 239 214 238 214 237 214 222 215 236 217 234 218 223 218 224 219 220 220 227 220 242 220 221 221 242 222 243 222 237 223 226 225 244 225 233 225 240 227 242 228 229 230 248 230 247 230 246 230 231 230 245 231 232 231 249 231 246 232 249 233 244 236 250 237 251 237 239 237 243 238 239 239 251 240 244 240 241 241 244 243 251 245 247 246 248 246 254 246 249 247 248 249 254 251 256 252 257 252 253 253 257 253 258 257 258 223 200 198 125 126 100 214 237 222 12 9 5 198 175 199 115 139 114 116 93 95 32 22 20 182 181 205 146 126 125 174 152 153 230 231 206 72 71 95 98 85 107 70 91 69 128 129 148 75 85 98 184 201 183 148 129 149 108 86 88 138 160 137 35 52 51 142 148 165 166 164 143 169 147 146 5 9 4 15 8 7 131 105 104 2 0 1 96 120 119 220 219 195 57 58 41 170 148 171 66 86 87 57 41 42 130 124 144 90 68 69 60 76 80 82 85 65 221 242 220 254 249 246 210 187 193 171 148 149 76 67 89 185 208 184 87 86 109 226 202 200 69 50 70 160 176 154 54 76 60 64 81 61 212 213 190 24 38 39 37 38 24 80 79 60 153 150 151 20 33 32 246 249 231 115 118 140 196 221 195 109 111 87 179 157 178 205 181 204 171 192 170 167 188 168 231 232 206 80 99 79 228 229 205 3 0 2 203 228 204 157 177 155 128 148 142 195 221 220 9 18 19 124 145 144 126 127 100 56 77 63 257 258 253 26 17 15 78 58 57 15 17 8 38 55 39 188 211 189 179 177 157 207 191 182 155 177 158 133 112 137 146 147 126 204 181 180 186 187 210 19 18 29 29 18 30 101 99 80 103 124 130 184 161 162 209 201 184 115 92 94 16 26 15 252 257 253 137 113 138 80 76 89 114 92 115 183 161 184 244 241 240 204 228 205 178 157 156 226 200 223 153 152 132 35 53 52 81 62 61 213 236 215 222 237 243 168 188 189 42 44 57 231 249 232 12 18 9 54 67 76 6 14 13 246 231 230 117 93 116 32 36 22 65 85 75 104 105 84 220 242 227 95 93 72 84 105 106 251 237 239 95 71 73 155 158 136 4 9 10 172 195 194 137 160 154 143 141 122 14 25 13 41 40 27 61 45 46 32 33 48 180 181 159 63 77 83 10 9 19 143 164 141 4 10 11 49 50 69 86 110 109 217 210 193 108 110 86 196 195 172 136 134 155 95 73 96 122 141 121 35 34 21 173 174 151 46 64 61 224 218 198 96 119 95 51 34 35 151 174 153 234 210 217 198 218 223 214 238 239 159 181 182 132 150 153 190 213 215 47 53 35 240 225 244 244 225 233 173 197 174 245 247 230 16 15 7 94 118 115 198 200 175 212 235 213 239 237 214 119 116 95 165 148 170 48 36 32 137 112 113 61 62 45 88 86 66 69 91 90 107 85 102 106 105 131 248 246 230 102 85 82 42 41 27 243 237 251 135 157 155 107 123 98 69 68 49 230 247 248 134 135 155 139 140 163 224 198 199 115 140 139 21 31 35 195 219 194 156 157 135 184 208 209 162 185 184 154 133 137 35 31 47 </DataArray>
<DataArray Name="offsets" format="ascii" type="Int32">2 4 6 8 10 12 14 16 18 20 22 24 26 28 30 32 34 36 38 40 42 44 46 48 50 52 54 56 58 60 62 64 66 68 70 72 74 76 78 80 82 84 86 88 90 92 94 96 98 100 102 104 106 108 110 112 114 116 118 120 122 124 126 128 130 132 134 136 138 140 142 144 146 148 150 152 154 156 158 160 162 164 166 168 170 172 174 176 178 180 182 184 186 188 190 192 194 196 198 200 202 204 206 208 210 212 214 216 218 220 222 224 226 228 230 232 234 236 238 240 242 244 246 248 250 252 254 256 258 260 262 264 266 268 270 272 274 276 278 280 282 284 286 288 290 292 294 296 298 300 302 304 306 308 310 312 314 316 318 320 322 324 326 328 330 332 334 336 338 340 342 344 346 348 350 352 354 356 358 360 362 364 366 368 370 372 374 376 378 380 382 384 386 388 390 392 394 396 398 400 402 404 406 408 410 412 414 416 418 420 422 424 426 428 430 432 434 436 438 440 442 444 446 448 450 452 454 456 458 460 462 464 466 468 470 472 474 476 478 480 482 484 486 488 490 492 494 496 498 500 502 504 506 508 510 512 514 516 518 520 522 524 526 528 530 532 534 536 538 540 542 544 546 548 550 552 554 556 558 560 562 564 566 568 570 572 574 576 578 580 582 584 586 588 590 592 594 596 598 600 602 604 606 608 610 612 614 616 618 620 622 624 626 628 630 632 634 636 638 640 642 644 646 648 650 652 654 656 658 660 662 664 666 668 670 672 674 676 678 680 682 684 686 688 690 692 694 696 698 700 702 704 706 708 710 712 714 716 718 720 722 724 726 728 730 732 734 736 738 740 742 744 746 748 750 752 754 756 758 760 762 764 766 768 770 772 774 776 778 780 782 784 786 788 790 792 794 796 798 800 802 804 806 808 810 812 814 816 818 820 822 824 826 828 830 832 834 836 838 840 842 844 846 849 852 855 858 861 864 867 870 873 876 879 882 885 888 891 894 897 900 903 906 909 912 915 918 921 924 927 930 933 936 939 942 945 948 951 954 957 960 963 966 969 972 975 978 981 984 987 990 993 996 999 1002 1005 1008 1011 1014 1017 1020 1023 1026 1029 1032 1035 1038 1041 1044 1047 1050 1053 1056 1059 1062 1065 1068 1071 1074 1077 1080 1083 1086 1089 1092 1095 1098 1101 1104 1107 1110 1113 1116 1119 1122 1125 1128 1131 1134 1137 1140 1143 1146 1149 1152 1155 1158 1161 1164 1167 1170 1173 1176 1179 1182 1185 1188 1191 1194 1197 1200 1203 1206 1209 1212 1215 1218 1221 1224 1227 1230 1233 1236 1239 1242 1245 1248 1251 1254 1257 1260 1263 1266 1269 1272 1275 1278 1281 1284 1287 1290 1293 1296 1299 1302 1305 1308 1311 1314 1317 1320 1323 1326 1329 1332 1335 1338 1341 1344 1347 1350 1353 1356 1359 1362 1365 1368 1371 1374 1377 1380 1383 1386 1389 1392 1395 1398 1401 1404 1407 1410 1413 1416 1419 1422 1425 1428 1431 1434 1437 1440 1443 1446 1449 </DataArray>
<DataArray Name="types" format="ascii" type="UInt8">3 3 3 3 3 3 3 3 3 3 3 3 3 3 3 3 3 3 3 3 3 3 3 3 3 3 3 3 3 3 3 3 3 3 3 3 3 3 3 3 3 3 3 3 3 3 3 3 3 3 3 3 3 3 3 3 3 3 3 3 3 3 3 3 3 3 3 3 3 3 3 3 3 3 3 3 3 3 3 3 3 3 3 3 3 3 3 3 3 3 3 3 3 3 3 3 3 3 3 3 3 3 3 3 3 3 3 3 3 3 3 3 3 3 3 3 3 3 3 3 3 3 3 3 3 3 3 3 3 3 3 3 3 3 3 3 3 3 3 3 3 3 3 3 3 3 3 3 3 3 3 3 3 3 3 3 3 3 3 3 3 3 3 3 3 3 3 3 3 3 3 3 3 3 3 3 3 3 3 3 3 3 3 3 3 3 3 3 3 3 3 3 3 3 3 3 3 3 3 3 3 3 3 3 3 3 3 3 3 3 3 3 3 3 3 3 3 3 3 3 3 3 3 3 3 3 3 3 3 3 3 3 3 3 3 3 3 3 3 3 3 3 3 3 3 3 3 3 3 3 3 3 3 3 3 3 3 3 3 3 3 3 3 3 3 3 3 3 3 3 3 3 3 3 3 3 3 3 3 3 3 3 3 3 3 3 3 3 3 3 3 3 3 3 3 3 3 3 3 3 3 3 3 3 3 3 3 3 3 3 3 3 3 3 3 3 3 3 3 3 3 3 3 3 3 3 3 3 3 3 3 3 3 3 3 3 3 3 3 3 3 3 3 3 3 3 3 3 3 3 3 3 3 3 3 3 3 3 3 3 3 3 3 3 3 3 3 3 3 3 3 3 3 3 3 3 3 3 3 3 3 3 3 3 3 3 3 3 3 3 3 3 3 3 3 3 3 3 3 3 3 3 3 3 3 3 3 3 3 3 3 3 3 3 3 3 3 3 3 3 3 3 3 5 5 5 5 5 5 5 5 5 5 5 5 5 5 5 5 5 5 5 5 5 5 5 5 5 5 5 5 5 5 5 5 5 5 5 5 5 5 5 5 5 5 5 5 5 5 5 5 5 5 5 5 5 5 5 5 5 5 5 5 5 5 5 5 5 5 5 5 5 5 5 5 5 5 5 5 5 5 5 5 5 5 5 5 5 5 5 5 5 5 5 5 5 5 5 5 5 5 5 5 5 5 5 5 5 5 5 5 5 5 5 5 5 5 5 5 5 5 5 5 5 5 5 5 5 5 5 5 5 5 5 5 5 5 5 5 5 5 5 5 5 5 5 5 5 5 5 5 5 5 5 5 5 5 5 5 5 5 5 5 5 5 5 5 5 5 5 5 5 5 5 5 5 5 5 5 5 5 5 5 5 5 5 5 5 5 5 5 5 5 5 5 5 5 5 5 5 5 5 5 5 </DataArray>
</Cells>
<PointData/>
<CellData>
<DataArray Name="cdata 0" NumberOfComponents="1" format="ascii" type="Float32">2 2 2 2 2 2 2 2 2 2 2 2 2 2 2 2 2 2 2 2 2 2 2 2 2 2 2 2 2 2 2 2 2 2 2 2 2 2 2 2 2 2 2 2 2 2 2 2 2 2 2 2 2 2 2 2 2 2 2 2 2 2 2 2 2 2 2 2 2 2 2 2 2 2 2 2 2 2 2 2 2 2 2 2 2 2 2 2 2 2 2 2 2 2 2 2 2 2 2 2 2 2 2 2 2 2 2 2 2 2 2 2 2 2 2 2 2 2 2 2 2 2 2 2 2 2 2 2 2 2 2 2 2 2 2 2 2 2 2 2 2 2 2 2 2 2 2 2 2 2 2 2 2 2 2 2 2 2 2 2 2 2 2 2 2 2 2 2 2 2 2 2 2 2 2 2 2 2 2 2 2 2 2 2 2 2 2 2 2 2 2 2 2 2 2 2 2 2 2 2 2 2 2 2 2 2 2 2 2 2 2 2 2 2 2 2 2 2 2 2 2 2 2 2 2 2 2 2 2 2 2 2 2 2 2 2 2 2 2 2 2 2 2 2 2 2 2 2 2 2 2 2 2 2 2 2 2 2 2 2 2 2 2 2 2 2 2 2 2 2 2 2 2 2 2 2 2 2 2 2 2 2 2 2 2 2 2 2 2 2 2 2 2 2 2 2 2 2 2 2 2 2 2 2 2 2 2 2 2 2 2 2 2 2 2 2 2 2 2 2 2 2 2 2 2 2 2 2 2 2 2 2 2 2 2 2 2 2 2 2 2 2 2 2 2 2 2 2 2 2 2 2 2 2 2 2 2 2 2 2 2 2 2 2 2 2 2 2 2 2 2 2 2 2 2 2 2 2 2 2 2 2 2 2 2 2 2 2 2 2 2 2 2 2 2 2 2 2 2 2 2 2 2 2 2 2 2 2 2 2 2 2 2 2 2 2 2 2 2 2 2 2 2 3 3 3 3 3 3 3 3 3 3 3 3 3 3 3 3 3 3 3 3 3 3 3 3 3 3 3 3 3 3 3 3 3 3 3 3 3 3 3 3 3 3 3 3 3 3 3 3 3 3 3 3 3 3 3 3 3 3 3 3 3 3 3 3 3 3 3 3 3 3 3 3 3 3 3 3 3 3 3 3 3 3 3 3 3 3 3 3 3 3 3 3 3 3 3 3 3 3 3 3 3 3 3 3 3 3 3 3 3 3 3 3 3 3 3 3 3 3 3 3 3 3 3 3 3 3 3 3 3 3 3 3 3 3 3 3 3 3 3 3 3 3 3 3 3 3 3 3 3 3 3 3 3 3 3 3 3 3 3 3 3 3 3 3 3 3 3 3 3 3 3 3 3 3 3 3 3 3 3 3 3 3 3 3 3 3 3 3 3 3 3 3 3 3 3 3 3 3 3 3 3 </DataArray>
</CellData>
</Piece>
</UnstructuredGrid>
</VTKFile>
